# vtk DataFile Version 3.0
pressure
ASCII
DATASET UNSTRUCTURED_GRID
POINTS 945 float
0.382844 0.458199 0
0.44019 0.455745 0
0.39372 0.512522 0
0.436522 0.0292276 0
0.485436 0.0183592 0
0.461751 0.0701461 0
0.485527 -0.252028 0
0.465322 -0.309517 0
0.526179 -0.298702 0
0.33934 0.427649 0
0.285636 0.452885 0
0.27825 0.391168 0
-0.472342 0.254173 0
-0.46164 0.194847 0
-0.423356 0.254092 0
0.250311 -0.87403 0
0.313958 -0.875548 0
0.287797 -0.820564 0
-0.695637 0.661475 0
-0.710533 0.7091 0
-0.749903 0.668545 0
-0.390441 -0.375951 0
-0.343727 -0.359773 0
-0.388243 -0.324169 0
-0.189312 0.76221 0
-0.21319 0.82001 0
-0.240484 0.755135 0
0.188449 -0.624782 0
0.251031 -0.618345 0
0.224084 -0.568296 0
-0.48926 -0.767085 0
-0.448472 -0.805912 0
-0.442559 -0.746553 0
-0.626768 0.745004 0
-0.65833 0.704245 0
-0.599715 0.698533 0
0.289588 0.999994 0
-1 1 0
-0.608975 0.999993 0
0.346091 -0.464265 0
0.330345 -0.391444 0
0.276936 -0.424976 0
0.0901711 0.699237 0
0.0493045 0.665029 0
0.102225 0.644706 0
-0.802783 -0.27724 0
-0.745196 -0.307348 0
-0.747974 -0.230959 0
-0.0794018 0.460972 0
-0.078036 0.392314 0
-0.044783 0.427473 0
-0.878569 0.380589 0
-0.82579 0.379435 0
-0.862459 0.417194 0
0.744341 0.0491377 0
0.788209 0.0186116 0
0.795864 0.071254 0
0.237759 0.492805 0
0.221312 0.542079 0
0.184347 0.517229 0
0.461676 -0.466829 0
0.450027 -0.511181 0
0.494405 -0.503427 0
-0.629057 0.805321 0
-0.546907 0.812722 0
-0.586699 0.86672 0
0.541632 0.00836203 0
0.557093 -0.0348774 0
0.595462 -0.00360808 0
0.394096 -0.642594 0
0.420685 -0.698174 0
0.460421 -0.650133 0
0.118528 -0.780754 0
0.132719 -0.716346 0
0.0839708 -0.729734 0
-0.282843 -0.282843 0
-0.335951 -0.30026 0
-0.289513 -0.343158 0
-0.735646 0.262653 0
-0.759716 0.296401 0
-0.766611 0.242033 0
0.43229 -0.595311 0
0.46831 -0.550212 0
0.414549 -0.543561 0
0.479922 -0.412247 0
0.503073 -0.355311 0
0.442598 -0.369312 0
-0.379126 -0.268514 0
-0.403763 -0.214821 0
-0.432566 -0.281207 0
0.66046 -0.71635 0
0.666817 -0.770293 0
0.711719 -0.745521 0
-0.579179 -0.0983179 0
-0.583107 -0.165369 0
-0.536952 -0.11802 0
-0.392314 -0.0780362 0
-0.452044 -0.0443356 0
-0.451646 -0.0972254 0
-0.711102 0.566328 0
-0.678627 0.61114 0
-0.730477 0.617698 0
0.661343 -0.514606 0
0.685779 -0.445609 0
0.62506 -0.460142 0
-0.70887 -0.71492 0
-0.785313 -0.683469 0
-0.783098 -0.733955 0
-0.135149 0.615549 0
-0.143668 0.673315 0
-0.192302 0.617106 0
0.71939 -0.504097 0
0.7165 -0.557234 0
0.665136 -0.583517 0
0.714059 -0.617116 0
-0.00194981 0.625817 0
0.0590461 0.602784 0
0.797237 -0.36439 0
0.754704 -0.40845 0
0.825941 -0.40929 0
-0.697848 0.17153 0
-0.673389 0.115369 0
-0.640215 0.162933 0
-0.120722 -0.666158 0
-0.140939 -0.716775 0
-0.0764936 -0.700885 0
-1 -1 0
-0.999995 -0.289467 0
-0.0532379 0.620242 0
-0.0437289 0.570584 0
-0.590363 -0.600381 0
-0.543281 -0.570693 0
-0.592685 -0.544558 0
-0.25318 -0.385006 0
-0.251887 -0.444585 0
-0.202258 -0.404245 0
0.0254952 0.497597 0
0.0731238 0.542149 0
0.0125589 0.557236 0
0.581899 0.211076 0
0.601564 0.152999 0
0.634532 0.196257 0
-0.795154 -0.336583 0
-0.84367 -0.369659 0
-0.775322 -0.40507 0
-0.40032 -0.843403 0
-0.395885 -0.782317 0
0.504105 -0.191336 0
0.457149 -0.167159 0
0.447279 -0.210154 0
-0.766675 -0.524993 0
-0.755873 -0.579071 0
-0.721654 -0.533582 0
-0.290071 -0.77891 0
-0.29743 -0.721055 0
-0.345253 -0.753427 0
0.0415157 -0.635132 0
0.0857901 -0.678294 0
0.0923629 -0.631665 0
-0.308338 0.739092 0
-0.342086 0.798239 0
-0.379267 0.746982 0
-0.783466 0.624351 0
-0.831531 0.62681 0
-0.813921 0.582432 0
0.431873 -0.796334 0
0.387814 -0.751927 0
0.361882 -0.82063 0
-0.616217 -0.999995 0
-0.903567 -0.999995 0
0.35234 0.728797 0
0.332631 0.760567 0
0.298281 0.734079 0
0.33983 -0.636002 0
0.349231 -0.693965 0
-0.35621 0.544533 0
-0.315077 0.51842 0
-0.315723 0.578125 0
-0.715709 -0.155795 0
-0.774595 -0.106512 0
-0.773775 -0.172197 0
0.0780361 0.392314 0
0.158062 0.430406 0
0.0929318 0.475238 0
-0.488926 -0.425821 0
-0.499493 -0.492374 0
-0.441701 -0.476914 0
-0.301033 0.40792 0
-0.355949 0.428952 0
-0.346582 0.374145 0
0.712964 -0.680589 0
0.653022 -0.648 0
0.640965 0.0378861 0
0.650785 -0.0294621 0
0.696564 0.017761 0
-0.30606 0.671203 0
-0.270899 0.64826 0
-0.259427 0.695538 0
0.308326 0.789029 0
0.544314 -0.242074 0
0.591977 -0.288573 0
0.184832 -0.692261 0
0.237322 -0.672172 0
0.548108 -0.0895853 0
0.506646 -0.0337332 0
0.697835 -0.21567 0
0.642675 -0.251904 0
0.691314 -0.270723 0
0.321651 -0.761683 0
0.409595 -0.490865 0
0.420161 -0.431944 0
0.347072 0.283493 0
0.307552 0.330593 0
0.282843 0.282843 0
0.494985 -0.598983 0
-0.513458 0.471949 0
-0.570261 0.499099 0
-0.562277 0.435875 0
-0.222228 -0.332588 0
-0.561661 0.255883 0
-0.560298 0.317003 0
-0.60963 0.284854 0
-0.507271 -0.0233806 0
-0.497451 -0.0794387 0
-0.762258 0.720268 0
0.443102 -0.744269 0
-0.538988 0.101043 0
-0.580514 0.159047 0
-0.608928 0.108447 0
-0.257299 0.599574 0
-0.22252 0.537693 0
0.708724 0.154531 0
0.690619 0.224323 0
0.658735 0.15384 0
0.168387 -0.559844 0
0.127815 -0.600857 0
-0.524883 -0.171115 0
-0.487016 -0.13834 0
-0.521859 0.0339689 0
-0.481107 0.0678089 0
0.536809 0.842999 0
0.51215 0.790001 0
0.557128 0.787281 0
-0.499896 -0.820172 0
-0.527792 -0.782606 0
-0.840884 0.547141 0
-0.793053 0.529691 0
-0.658038 0.312646 0
-0.608765 0.343576 0
-0.508182 0.616965 0
-0.47764 0.5596 0
-0.43853 0.603089 0
0.714341 0.304167 0
0.758592 0.260222 0
0.206357 -0.513772 0
0.158807 -0.509537 0
0.326102 0.539974 0
0.337179 0.48041 0
-0.680753 -0.216203 0
0.74769 -0.0631707 0
0.747885 -0.00927746 0
0.705972 -0.0335344 0
-0.756106 -0.779362 0
-0.733138 -0.828982 0
-0.697441 -0.793953 0
-0.812339 0.678886 0
0.351856 -0.335291 0
0.291419 -0.347172 0
-0.48108 -0.218195 0
-0.541595 -0.213217 0
-0.541882 -0.267529 0
0.849535 -0.241001 0
0.815012 -0.283069 0
0.877644 -0.30057 0
0.848858 0.0946017 0
0.802235 0.132337 0
0.117341 0.588459 0
0.132577 0.531848 0
0.180757 0.576043 0
-0.417403 -0.420576 0
-0.358007 -0.414162 0
0.259379 0.678333 0
0.237875 0.729811 0
-0.01793 0.456887 0
-0.0344348 0.510967 0
-0.172771 -0.661214 0
0.674621 0.737016 0
0.642786 0.786029 0
0.618578 0.737763 0
0.730014 -0.168224 0
0.762856 -0.206963 0
0.780137 -0.154176 0
-0.547811 -0.0595326 0
-0.60516 -0.0433942 0
-0.559948 0.376879 0
-0.511594 0.413183 0
-0.0111087 -0.999985 0
-0.233697 -0.999981 0
-0.264894 -0.99999 0
-0.451138 0.388524 0
-0.398381 0.348523 0
-0.393878 0.397058 0
-0.430492 -0.149303 0
0.375822 0.686875 0
0.373349 0.635383 0
0.419558 0.666903 0
-0.31759 -0.457351 0
-0.379997 -0.467968 0
-0.340354 -0.512876 0
-0.798408 0.00104184 0
-0.755266 -0.0336263 0
-0.762673 0.0287584 0
-0.402407 -0.52208 0
-0.736573 0.12844 0
-0.71051 0.0614132 0
0.574808 0.74683 0
0.52519 0.734946 0
-0.600765 0.645666 0
-0.55518 0.658921 0
-0.638411 -0.569094 0
-0.640735 -0.513005 0
0.598228 0.778953 0
-0.222228 0.332588 0
-0.153073 0.369552 0
-0.195414 0.391711 0
0.601251 -0.691463 0
-0.600371 -0.844372 0
-0.56786 -0.897846 0
-0.554305 -0.824662 0
-0.64555 -0.445837 0
-0.690548 -0.48856 0
0.627841 -0.0904758 0
0.599633 -0.143099 0
0.811963 -0.778762 0
0.772046 -0.824674 0
0.830383 -0.830583 0
-0.737952 -0.642114 0
-0.799884 -0.622445 0
0.447257 -0.0236321 0
0.4 -1.51516e-07 0
0.549531 -0.73776 0
0.484212 -0.708275 0
0.488833 -0.767861 0
-0.297644 0.624327 0
0.373548 -0.27454 0
0.406972 -0.323025 0
0.42839 -0.263415 0
-0.0897497 0.653913 0
-0.0947551 0.588335 0
-0.823793 0.4389 0
-0.770287 0.46517 0
-0.832244 0.49639 0
-0.662781 0.00138429 0
-0.702215 -0.0348945 0
-0.662364 -0.0631672 0
-0.746343 0.829943 0
-0.758932 0.774398 0
-0.702677 0.793082 0
-0.872456 0.655219 0
-0.630651 -0.713178 0
-0.576502 -0.717611 0
-0.593695 -0.662367 0
-0.516999 -0.866972 0
0.517403 0.546069 0
0.518156 0.607614 0
0.468908 0.57902 0
-0.424081 0.141672 0
-0.478607 0.126753 0
-0.442896 0.0924415 0
-0.627746 -0.329078 0
-0.561538 -0.33605 0
-0.592206 -0.287794 0
0.20879 0.390787 0
0.227315 0.436589 0
-0.372265 0.491974 0
-0.415076 0.443396 0
0.411772 0.732712 0
0.469902 0.76349 0
0.425994 0.799372 0
-8.66373e-18 0.4 0
0.034892 0.444581 0
-0.627614 0.60501 0
-0.643915 0.655159 0
-0.311871 0.463673 0
0.590218 0.999987 0
0.431946 0.999976 0
0.596134 -0.0505375 0
-0.558423 0.203783 0
-0.522106 0.166254 0
-0.514629 0.225388 0
0.773008 0.32178 0
-0.289344 0.350319 0
-0.245935 0.393306 0
-0.0412191 0.662463 0
-0.70464 0.469453 0
-0.721242 0.403466 0
0.580264 0.690127 0
-0.61111 0.218788 0
0.394467 -0.215671 0
-0.693559 -0.591671 0
-0.686315 -0.649658 0
0.619691 0.334845 0
0.584707 0.386964 0
0.561135 0.31865 0
-0.358422 0.68929 0
-0.341671 0.632316 0
0.230489 -0.721729 0
0.257066 -0.767305 0
0.282539 -0.713359 0
0.568084 0.580934 0
0.620208 0.556499 0
0.616619 0.623018 0
0.52054 0.667977 0
0.469375 0.638436 0
0.369552 -0.153074 0
0.332588 -0.222228 0
-0.861911 -0.603722 0
-0.815827 -0.550816 0
-0.276495 -0.503546 0
0.444331 0.315469 0
0.496045 0.303111 0
0.467566 0.355721 0
0.42181 0.608374 0
-0.777025 0.0872199 0
-0.651318 -0.672646 0
-0.555372 -0.999988 0
-0.437539 -0.999982 0
-0.608839 0.400033 0
-0.657604 0.429425 0
-0.660214 0.369896 0
0.748922 0.113313 0
-0.824335 -0.778031 0
0.760079 -0.588212 0
0.773301 -0.643703 0
0.814954 -0.590989 0
0.800126 -0.239098 0
-0.14204 -0.873907 0
-0.118388 -0.816133 0
-0.179064 -0.83714 0
0.418832 -0.174615 0
0.431086 -0.130421 0
0.521235 -0.547092 0
0.545518 -0.497329 0
-0.135676 -0.478412 0
-0.189243 -0.461506 0
-0.176373 -0.513512 0
-0.836808 -0.718025 0
0.75667 -0.470341 0
0.800389 -0.447806 0
-0.508876 0.350095 0
-0.797042 0.147668 0
-0.754646 0.187496 0
-0.812325 0.207198 0
-0.711585 0.230125 0
-0.511992 0.286489 0
-0.759968 -0.3531 0
-0.723784 -0.364341 0
-0.574304 0.757002 0
-0.261291 0.445554 0
-0.349622 -0.650021 0
-0.392271 -0.667134 0
-0.346711 -0.695874 0
-0.50892 0.758713 0
-0.474586 0.809422 0
0.61129 -0.4005 0
-0.0107827 0.782972 0
-0.00392399 0.708343 0
0.0389119 0.76122 0
-0.48688 -0.654325 0
-0.485049 -0.589427 0
-0.538485 -0.62681 0
0.582676 0.0502927 0
0.624567 0.0987286 0
0.377738 0.575868 0
[...]
POINT_DATA 945
SCALARS pressure double
LOOKUP_TABLE default
25.5683
22.8644
25.9662
14.9776
14.3961
15.0225
17.3329
19.1077
16.8123
27.0556
30.4151
29.2918
82.2204
83.0964
80.74
36.8725
33.6288
34.6263
86.4402
86.8547
88.8511
76.523
74.8666
77.7197
60.4901
61.4554
63.3001
38.5673
34.9392
35.8873
75.9596
73.6531
73.8123
82.7352
84.4703
81.7759
35.5206
100
80.4488
27.4688
26.625
30.2623
44.7529
47.0495
43.8055
92.9318
90.7393
91.2498
56.0185
56.8964
53.6786
95.3608
93.3564
94.6335
8.25211
6.88891
6.70037
33.9391
35.7001
37.577
22.0766
23.275
21.1442
82.4822
78.4567
80.0677
13.4316
13.1588
12.2612
27.651
26.8628
24.442
43.4498
42.3887
45.2043
74.8565
76.3553
72.8168
90.661
91.3157
91.8247
25.2186
22.9449
25.4198
20.4132
18.5538
21.1657
78.9578
81.2021
80.3847
15.5061
15.5211
13.2837
87.0583
86.6259
85.9124
84.3127
85.068
84.5529
87.7105
85.9941
88.2486
14.0442
12.4887
15.0678
86.7504
90.3865
90.0805
58.3489
58.4617
61.7137
11.5412
12.0042
14.4115
12.4769
50.1185
46.267
7.66432
9.51981
6.76446
89.9402
89.484
88.2574
57.1802
58.073
54.4546
100
100
53.3161
52.8596
82.1289
80.2791
82.7435
69.5192
67.8873
65.8461
48.1617
45.0674
49.1636
13.8787
12.7657
12.168
92.3941
94.0784
91.3055
70.9736
71.1889
15.7793
16.481
17.5745
90.3157
89.5734
88.3738
65.7715
66.5974
68.8301
47.4515
44.9217
44.3324
67.0183
68.3269
70.6125
90.5469
92.6456
92.0454
27.1074
28.986
30.8186
80.8109
95.1784
30.61
31.8875
33.4758
30.36
30.4557
71.6636
69.9294
69.0789
90.5753
92.5758
92.3537
43.1042
37.7325
43.1494
79.7386
79.2323
76.8672
71.4733
73.7272
74.5988
12.8853
15.4053
11.1601
10.8829
9.61462
67.4946
65.8355
64.7754
33.3595
15.3926
14.4464
39.3129
36.2239
13.6358
14.1128
10.3265
12.3791
10.9121
32.4585
24.8614
23.3286
22.6526
25.8874
25.1831
22.2594
80.1166
82.23
82.6299
69.5368
84.9681
84.1089
86.1964
85.9236
85.4637
89.1787
26.1447
86.1048
86.6053
87.7368
65.627
64.4342
9.63788
10.6068
11.1453
39.0999
41.9752
85.0363
84.6251
86.1532
85.286
22.2292
23.0868
20.8771
76.1033
77.7319
93.3221
91.3876
87.5953
85.5197
78.1758
77.372
74.9911
10.3451
8.53592
36.1562
39.0715
29.8298
28.2522
89.1326
8.17152
8.11363
9.36037
88.6417
87.342
85.8084
91.6148
24.087
27.2528
83.1503
84.9332
84.1705
5.32151
6.67256
4.48052
5.04813
6.6089
42.5318
41.0475
38.5349
76.7643
74.1685
35.0801
36.6673
51.4001
52.4332
60.2272
14.9659
16.749
17.6047
9.04166
8.14578
7.38504
86.5604
87.922
83.2919
80.865
50.5554
61.6849
63.2447
78.803
77.5008
76.188
83.3263
29.0276
28.625
26.6281
71.21
74.1291
71.3549
93.4389
92.1022
92.331
74.3114
91.3264
90.7283
19.7466
22.046
82.2219
79.9925
84.5327
85.1043
18.8381
69.5487
63.4423
65.7413
18.0989
80.8682
78.9678
78.7426
85.9025
87.3839
11.6779
12.7493
8.74909
10.7822
8.00233
88.4531
91.2854
14.8643
14.9997
20.8959
23.8187
24.0696
67.54
21.4371
21.544
19.3403
55.4013
56.0516
93.0385
90.7752
93.149
89.4602
90.5315
89.3613
87.9676
88.798
86.0611
94.3583
83.126
80.5457
81.7692
76.6401
20.6356
21.2631
23.2686
83.3826
84.6092
84.5009
86.3661
83.8902
85.5765
33.3413
33.39
73.3156
76.2139
27.6212
24.9722
27.4403
49.9722
47.2252
83.7629
84.1302
70.7684
20.489
28.4026
12.3173
85.5231
85.0326
83.973
8.34571
72.5573
68.8397
52.4715
88.0998
89.2199
19.0715
86.9256
19.0602
86.7881
86.0921
13.9847
15.8858
15.8874
70.0548
69.7745
36.9951
35.8864
34.1271
18.7058
16.1621
16.8751
21.72
23.8945
17.6224
20.8396
94.0501
92.265
68.0887
19.9788
17.9177
19.9155
25.8872
92.6894
84.3509
77.7686
71.877
84.9028
86.5301
87.1603
8.24625
91.8474
10.3045
9.99243
7.94907
7.021
57.4903
56.4248
59.5858
17.4177
16.2787
20.4704
18.8153
59.84
63.6886
61.9867
92.5902
9.80811
7.93493
81.7502
93.1869
91.673
93.5171
90.046
82.912
91.0069
89.5873
80.1553
68.3894
70.0051
72.0091
69.4002
76.9813
74.9283
15.0127
50.588
50.2287
47.8082
76.7995
77.3818
79.5058
12.6408
11.7992
27.6865
13.7475
94.1519
6.07217
5.80681
7.94256
59.4434
61.514
46.089
45.132
42.9484
100
49.1705
52.3835
49.0134
33.7385
32.5361
17.9151
74.2
71.5945
86.9673
31.5967
49.9989
53.6221
12.2556
12.1197
82.3439
74.3383
10.8324
89.4716
88.1651
18.8915
15.9245
5.37475
80.3247
79.4217
9.32141
89.8618
73.8464
88.5663
79.1611
78.5907
81.3223
16.1192
7.76536
6.09421
5.69318
13.9501
79.7064
35.4822
89.201
87.2319
13.3851
74.5454
74.5518
9.65223
87.2698
86.0088
87.5115
93.9617
94.6294
16.5732
17.1327
83.6817
80.3826
78.6848
71.7127
9.95325
24.0732
78.8294
15.8017
15.9759
14.4301
65.2268
64.5583
76.9997
82.6974
85.0718
83.8518
8.30458
63.5793
64.5894
88.7571
87.3865
60.276
58.3153
24.0705
50.802
51.0548
88.0413
84.3343
82.3593
95.1775
67.3149
61.4657
95.0221
81.703
35.0426
33.6168
36.8913
71.7125
14.0545
62.1995
60.3761
76.9
33.2883
30.3487
30.8834
33.5526
68.2682
76.2958
24.6336
59.1468
54.5333
57.5502
61.2834
22.1708
21.1467
81.0804
77.6406
75.9164
78.7246
65.8108
62.8336
88.666
88.1201
93.6773
95.4066
92.9051
91.242
59.9839
6.28988
4.4212
5.49831
12.1772
12.7497
14.463
21.7816
20.046
67.7725
0
0
0
55.2865
53.3362
6.44051
84.2331
30.9048
27.8487
39.8611
41.7246
38.4111
65.5624
5.05616
72.0448
72.5569
84.3511
93.8736
18.2337
16.223
10.1499
90.7713
72.0599
19.9428
20.8433
9.85103
18.9588
78.1744
10.1393
57.6713
88.5189
53.409
53.1844
55.7378
56.2261
55.8022
53.3998
68.4608
43.0621
84.972
85.3503
16.3862
83.4572
62.7785
42.5141
56.2659
58.301
47.8763
13.8652
11.147
95.675
40.9512
42.7525
24.5079
45.5909
47.1274
23.3729
95.0512
40.3663
10.6456
81.3142
73.065
75.4024
17.0562
78.5695
47.4246
50.5967
52.7717
51.0677
54.9578
65.0738
58.3847
35.5291
20.9995
89.3181
89.4802
81.7306
69.2245
65.8477
17.1922
16.0711
9.94738
11.235
8.86104
82.7064
15.0662
15.7022
19.5452
17.8117
0
85.3633
51.1851
48.1373
49.3956
94.9241
12.3158
14.0505
15.2711
81.3291
85.5698
16.9402
17.9333
19.924
85.0617
93.8967
30.429
36.5356
33.6174
25.2387
9.73414
10.4899
12.7465
88.5514
87.5305
40.6418
43.1565
44.8519
5.30334
6.98344
83.148
15.7429
44.9207
91.4921
4.17551
6.23348
23.7157
82.0118
79.2017
7.25687
8.18399
10.0484
93.9964
14.0193
78.9758
13.704
56.6037
24.701
58.4462
18.1252
12.2446
73.846
84.9377
87.1745
18.076
14.6326
63.8216
89.4309
17.6168
18.6247
32.9944
32.4132
6.71061
4.44656
86.4407
90.8232
93.1431
93.555
39.2293
8.64452
12.024
83.1827
63.4782
56.868
14.8207
12.4446
6.73659
8.14444
6.33661
15.2922
8.83
10.4269
45.6529
12.4465
9.29246
14.0127
65.0076
62.204
89.6258
47.2161
95.8586
15.9411
14.1055
61.7724
31.0558
9.89128
94.5017
17.7428
94.0344
91.7886
93.5747
21.9108
22.1922
27.4242
28.4444
85.0892
4.9378
13.7367
36.3827
91.0348
38.1823
39.8167
41.4553
76.1016
79.1674
25.1763
93.7447
41.9579
37.9606
40.7801
39.9933
48.091
94.8574
84.8887
100
100
100
63.6393
67.093
89.8281
45.0133
19.6366
36.6649
37.0454
30.4645
36.5673
11.2678
22.9322
62.1388
16.204
12.8542
81.5111
15.6911
5.02458
14.2876
30.6564
91.3733
19.5032
58.3801
25.0468
30.407
19.7848
17.8087
100
25.1237
89.7178
95.4804
56.1362
17.1987
12.5554
74.833
54.33
82.309
8.52527
7.42578
17.6265
67.7828
4.9485
31.8873
33.0312
0
40.9389
39.4923
94.6552
8.43791
20.2475
7.32056
65.6311
39.2842
3.68016
0
3.21745
15.6627
97.1243
3.58547
3.09392
33.4111
37.8537
92.5125
87.5119
19.0289
28.3442
96.649
8.03301
5.50813
96.6911
96.896
95.9926
96.346
1.94646
3.02619
2.49097
100
96.4329
3.76606
86.5522
61.2171
56.3818
52.0062
95.745
5.47614
6.1652
11.3078
5.49283
0
98.3764
97.6273
96.8109
27.9003
69.2103
96.8845
97.5354
93.212
61.039
57.1943
97.0804
4.74523
74.7072
2.21383
0
15.5138
3.2144
69.6702
73.7343
24.0456
6.98172
19.531
4.11009
96.3709
94.0766
70.7241
3.47447
95.8022
