# vtk DataFile Version 3.0
velocity
ASCII
DATASET UNSTRUCTURED_GRID
POINTS 1854 float
0.405585 0.475489 0
0.461236 0.0392443 0
0.492343 -0.286749 0
0.301075 0.423901 0
-0.452446 0.234371 0
0.284022 -0.856714 0
-0.718691 0.679707 0
-0.374137 -0.353298 0
-0.214329 0.779118 0
0.221188 -0.603808 0
-0.460097 -0.773183 0
-0.628271 0.715927 0
-0.439796 0.999996 0
0.317791 -0.426895 0
0.0805669 0.669657 0
-0.765318 -0.271849 0
-0.0674069 0.42692 0
-0.855606 0.392406 0
0.776138 0.0463344 0
0.214473 0.517371 0
0.468703 -0.493812 0
-0.587554 0.828254 0
0.564729 -0.0100412 0
0.425067 -0.663634 0
0.111739 -0.742278 0
-0.302769 -0.308754 0
-0.753991 0.267029 0
0.438383 -0.563028 0
0.475198 -0.378957 0
-0.405152 -0.254847 0
0.679665 -0.744055 0
-0.566413 -0.127236 0
-0.432001 -0.0731991 0
-0.706735 0.598389 0
0.657394 -0.473452 0
-0.759094 -0.710781 0
-0.15704 0.635323 0
0.699078 -0.525312 0
0.698565 -0.585956 0
0.0354669 0.63121 0
0.792627 -0.394043 0
-0.670484 0.149944 0
-0.112718 -0.694606 0
-0.999998 -0.096489 0
-0.0329722 0.605548 0
-0.575443 -0.571877 0
-0.235775 -0.411279 0
0.0370593 0.532327 0
0.605998 0.186777 0
-0.804715 -0.370437 0
-0.414892 -0.810544 0
0.469511 -0.18955 0
-0.748067 -0.545882 0
-0.310918 -0.751131 0
0.0732229 -0.648364 0
-0.34323 0.761438 0
-0.809639 0.611198 0
0.393856 -0.78963 0
-0.839928 -0.999997 0
0.327751 0.741148 0
0.498191 -0.321177 0
0.361052 -0.65752 0
-0.329003 0.547026 0
-0.754693 -0.144835 0
0.109677 0.432653 0
-0.476707 -0.465036 0
-0.334521 0.403672 0
0.675482 -0.681646 0
0.662771 0.00872833 0
-0.278795 0.671667 0
0.313079 0.761225 0
0.554157 -0.27645 0
0.203534 -0.663072 0
0.537282 -0.052732 0
0.677275 -0.246099 0
0.357116 -0.77808 0
0.391949 -0.462358 0
0.312489 0.298976 0
0.465195 -0.581502 0
-0.548665 0.468974 0
-0.264861 -0.31953 0
-0.577196 0.285913 0
-0.485589 -0.0490516 0
0.470914 -0.521607 0
-0.740898 0.699304 0
0.4172 -0.731457 0
-0.576143 0.122846 0
-0.22404 0.584791 0
0.444295 -0.534985 0
0.686026 0.177565 0
0.16155 -0.595161 0
-0.516284 -0.142492 0
-0.513985 0.0676069 0
0.535362 0.80676 0
-0.505649 -0.789954 0
-0.815953 0.553088 0
-0.625478 0.313692 0
-0.474784 0.593218 0
0.721184 0.262904 0
0.17785 -0.527718 0
0.352334 0.510969 0
-0.714812 -0.200986 0
0.733849 -0.0353275 0
0.0638503 0.504995 0
-0.728895 -0.800766 0
-0.774833 0.689233 0
0.32454 -0.357969 0
-0.521519 -0.23298 0
0.847397 -0.27488 0
0.815652 0.0993976 0
0.143558 0.56545 0
-0.388617 -0.403563 0
0.265178 0.714074 0
-0.0439222 0.476275 0
0.629071 0.00160531 0
-0.144811 -0.681382 0
0.645328 0.753603 0
0.757669 -0.176454 0
-0.577383 -0.0670816 0
-0.544606 0.408646 0
-0.1699 -0.999985 0
-0.414466 0.378035 0
-0.438445 -0.194106 0
0.389576 0.663054 0
-0.34598 -0.479398 0
-0.772116 -0.00127535 0
-0.408035 -0.488987 0
0.321212 -0.838914 0
-0.706824 0.101741 0
0.552375 0.756352 0
-0.58522 0.667707 0
-0.623944 -0.542219 0
0.462565 -0.614809 0
0.576721 0.771021 0
0.0995442 0.516412 0
-0.190238 0.364617 0
0.638244 -0.685271 0
-0.574179 -0.855627 0
-0.658944 -0.482467 0
0.591861 -0.10772 0
0.804797 -0.81134 0
-0.774383 -0.649343 0
0.427926 0.00186512 0
0.507525 -0.737965 0
-0.275281 0.624054 0
0.40297 -0.286993 0
-0.0792476 0.62083 0
-0.808775 0.46682 0
-0.675787 -0.0322258 0
-0.735984 0.799141 0
0.456405 0.0079849 0
-0.838775 0.653638 0
-0.600283 -0.697719 0
-0.523733 -0.837269 0
0.501489 0.577568 0
-0.448528 0.120289 0
0.42093 -0.764177 0
-0.59383 -0.317641 0
0.198056 0.419261 0
-0.381097 0.454774 0
0.435889 0.765191 0
0.0376427 0.412298 0
-0.624098 0.635278 0
-0.346695 0.461533 0
0.437251 0.999986 0
0.614127 -0.0278692 0
-0.531719 0.198475 0
0.748647 0.29539 0
-0.278771 0.383848 0
-0.0321356 0.636174 0
0.0928707 0.611983 0
-0.732056 0.44603 0
0.591217 0.724907 0
-0.583349 0.193873 0
0.423379 -0.229747 0
-0.705942 -0.627814 0
0.588511 0.34682 0
-0.335384 0.66427 0
0.256698 -0.734131 0
-0.351865 -0.446494 0
0.601637 0.586817 0
0.50269 0.638009 0
0.365536 -0.196991 0
-0.825874 -0.592328 0
-0.31148 -0.491258 0
0.469314 0.324767 0
0.404906 0.636887 0
0.353121 0.455419 0
-0.741369 0.0923577 0
0.661295 0.191473 0
-0.682168 -0.679075 0
-0.419268 -0.999987 0
0.518673 -0.264268 0
-0.642219 0.399785 0
0.534548 0.578206 0
0.763042 0.0779016 0
-0.787846 -0.763783 0
0.782778 -0.607635 0
0.821558 -0.254389 0
-0.146497 -0.842393 0
0.511315 -0.228479 0
0.40649 -0.152703 0
0.520386 -0.515949 0
-0.167097 -0.484477 0
0.597205 0.754515 0
-0.80174 -0.711816 0
0.250117 -0.70242 0
0.770588 -0.442199 0
-0.490536 0.383934 0
-0.788004 0.180787 0
-0.744281 0.219885 0
-0.499654 0.25535 0
-0.742983 -0.341596 0
-0.600262 0.733513 0
0.317807 -0.723002 0
-0.291398 0.439049 0
-0.362868 -0.67101 0
-0.510138 0.793619 0
0.64071 -0.435417 0
0.0080684 0.750845 0
-0.503471 -0.623521 0
0.616069 0.0623025 0
0.390966 0.606542 0
0.576856 -0.254787 0
-0.82648 -0.339745 0
0.825188 0.363853 0
-0.119657 0.459817 0
0.0990937 -0.855544 0
-0.999996 -0.695011 0
-0.0029104 -0.501782 0
0.258751 -0.466952 0
0.556271 0.356082 0
-0.40892 -0.692649 0
-0.53857 -0.0284912 0
0.357481 0.664426 0
-0.0118164 -0.440954 0
0.650266 0.324778 0
-0.397453 -0.126804 0
-0.379822 0.52823 0
0.72863 -0.712017 0
-0.478704 -0.105001 0
-0.653195 -0.0949934 0
0.637321 0.817351 0
0.827021 -0.378568 0
-0.510538 0.546975 0
0.737505 -0.531578 0
-0.734533 0.58564 0
-0.492682 -0.852552 0
-0.735836 -0.398418 0
-0.363628 0.229774 0
0.561167 -0.311479 0
0.840188 -0.495233 0
0.549024 0.0393479 0
-0.549454 -0.791334 0
-0.196918 -0.999993 0
-0.714294 0.535043 0
0.590021 0.0844214 0
-0.447761 -0.598844 0
0.764855 -0.376082 0
-0.575649 0.0877234 0
-0.607687 -0.263686 0
-0.810598 0.0808388 0
0.57207 -0.482625 0
-0.662915 -0.73101 0
-0.424158 0.288559 0
-0.395998 -0.554647 0
0.710177 0.0523866 0
0.37247 0.432585 0
-0.520064 -0.655046 0
-0.592898 0.315144 0
0.50999 0.175963 0
-0.209423 -0.5198 0
-0.527055 0.317862 0
-0.480641 0.526697 0
-0.242797 -0.516478 0
-0.58549 -0.410146 0
-0.6815 -0.453414 0
0.771258 -0.346347 0
-0.265758 -0.719884 0
-0.671034 0.0410771 0
0.531489 0.770743 0
-0.641229 -0.404209 0
-0.466196 -0.168613 0
-0.152519 -0.535178 0
0.263734 0.426881 0
0.410746 -0.359605 0
0.0037584 -0.637834 0
-0.591273 -0.0100306 0
-0.395316 0.12426 0
-0.822643 0.174842 0
-0.282535 0.574142 0
0.822477 -0.466515 0
0.436914 0.637904 0
-0.233213 0.716631 0
0.402384 0.695497 0
-0.609886 0.143476 0
-0.785155 0.0548002 0
-0.853977 0.440107 0
-0.522272 -0.595643 0
-0.604278 -0.727109 0
0.245588 0.612313 0
-0.478828 -0.999991 0
-0.334448 -0.391441 0
0.592466 -0.325809 0
-0.218234 -0.7655 0
-0.467064 -0.500551 0
0.285205 -0.54183 0
0.246063 -0.408124 0
0.250237 0.46076 0
0.352899 -0.735858 0
-0.379794 -0.813567 0
0.760145 0.0194906 0
-0.471402 -0.68484 0
0.468946 -0.797384 0
-0.190394 -0.810677 0
-0.0902988 -0.665995 0
-0.125357 -0.450957 0
0.560087 0.723968 0
0.41827 0.322622 0
-0.252502 0.358738 0
0.590694 -0.0768662 0
-0.410916 -0.750471 0
0.428936 -0.629346 0
-0.56147 -0.544262 0
-0.50787 0.695969 0
-0.21168 0.500947 0
-0.678377 0.231577 0
-0.834937 0.235708 0
-0.570677 -0.20497 0
-0.800201 0.354377 0
-0.582816 -0.744961 0
-0.159745 0.593945 0
0.842126 -0.175858 0
0.668358 0.439702 0
0.456359 0.4208 0
-0.280658 0.468773 0
0.999998 0.0844407 0
-0.0539947 -0.53941 0
-0.315125 0.642615 0
0.804978 -0.309762 0
0.47978 -0.013002 0
-0.623327 -0.597936 0
0.385535 -0.855538 0
-0.781044 -0.307057 0
0.173792 0.700944 0
-0.239249 0.425224 0
-0.499458 0.195496 0
0.415282 0.387712 0
-0.454231 -0.657926 0
0.810202 0.0394674 0
-0.372256 0.62298 0
0.598584 -0.470229 0
-0.625 0.426783 0
-0.781574 -0.204498 0
-0.543041 0.347992 0
0.596028 -0.533978 0
0.739676 0.331655 0
-0.349403 0.571365 0
-0.682961 -0.0873129 0
-0.413553 -0.607869 0
0.706992 0.341183 0
0.358022 0.250893 0
0.723189 0.407454 0
0.461907 0.296229 0
0.54583 -0.529927 0
-0.541356 -0.762121 0
0.559006 0.999991 0
-0.141239 -0.793104 0
-0.625939 0.371168 0
-0.660408 -0.342064 0
-0.071701 0.722154 0
-0.0945988 0.808055 0
-0.0559474 -0.66818 0
-0.0346404 -0.636438 0
-0.334132 -0.545803 0
-0.630656 -0.0713981 0
0.118339 0.709176 0
-0.439427 -0.0106448 0
0.635917 -0.580759 0
-0.154191 0.467927 0
-0.290222 0.600675 0
-0.627506 -0.482385 0
-0.434702 -0.510453 0
0.0141524 0.466355 0
-0.737947 0.244937 0
0.061245 0.99999 0
-0.125012 0.521269 0
-0.130245 0.708822 0
0.0546155 -0.673047 0
0.725895 -0.775594 0
-0.498456 0.00766317 0
-0.857487 0.258278 0
0.720613 -0.473349 0
0.129829 -0.507363 0
-0.268892 -0.409993 0
0.452602 0.668757 0
-0.82206 0.524407 0
0.371248 0.48371 0
-0.673694 -0.621888 0
0.0555574 0.740169 0
0.370399 0.303015 0
0.675719 0.0486361 0
-0.856623 0.291033 0
0.192368 0.648351 0
0.380806 0.276311 0
0.633843 -0.126201 0
-0.576578 0.637192 0
-0.452385 0.688033 0
0.670798 -0.797972 0
-0.477291 0.415942 0
0.44822 -0.829878 0
0.00587757 -0.575274 0
-0.0528346 -0.775564 0
-0.311616 -0.367773 0
-0.310273 0.780979 0
-0.508301 0.725448 0
-0.185412 0.793094 0
0.290559 0.765574 0
0.561565 -0.695833 0
-0.725375 0.305187 0
-0.122519 -0.748781 0
-0.532074 -0.490594 0
-0.296016 -0.591959 0
0.446626 0.152221 0
-0.481723 0.678341 0
-0.0311585 -0.546253 0
-0.102007 -0.726314 0
0.758768 0.524729 0
0.005654 0.433823 0
-0.618798 0.845928 0
0.430309 -0.0964929 0
-0.322951 0.433515 0
0.0970328 0.727683 0
0.288838 -0.783184 0
0.749146 -0.616344 0
0.63161 0.167699 0
-0.467537 0.0956678 0
0.542474 -0.434674 0
0.999996 -0.453724 0
-0.668495 0.464785 0
0.681816 0.314552 0
0.0078979 -0.859467 0
-0.392286 0.677944 0
-0.819831 0.0178187 0
-0.580365 0.461955 0
0.597467 -0.207142 0
0.462933 -0.115067 0
-0.591911 -0.770848 0
-0.683341 0.578495 0
0.554348 0.48303 0
-0.706195 -0.82579 0
-0.781229 -0.062166 0
-0.0110399 0.584546 0
0.191945 -0.361338 0
-0.263195 -0.572189 0
0.361297 0.404315 0
0.755099 0.683796 0
-0.620524 -0.17891 0
0.0860809 -0.417703 0
-0.856957 0.362326 0
-0.653072 -0.195854 0
0.830868 0.290874 0
-0.441954 -0.999997 0
-0.729689 0.162489 0
-0.572065 0.537785 0
0.532569 0.29366 0
0.105197 -0.578828 0
-0.614798 0.666453 0
-0.439136 -0.238074 0
-0.791571 0.437459 0
-0.329345 -0.578129 0
[...]
POINT_DATA 1854
VECTORS velocity double
46.4384 -16.6226 0
10.24 -7.41139 0
34.3793 18.79 0
51.1277 -24.3186 0
30.253 20.2232 0
51.1121 6.17624 0
45.1327 5.41165 0
44.1103 -24.9814 0
54.1298 5.6605 0
56.7776 11.6264 0
49.319 -7.59553 0
46.6001 6.4851 0
50 4.08941 0
53.5578 23.1678 0
59.696 -4.17694 0
35.2491 -5.40188 0
81.5342 14.4089 0
38.0452 3.1237 0
30.4827 -0.851066 0
61.0927 -15.3461 0
45.3756 15.1019 0
48.4719 5.88519 0
22.0981 1.59177 0
49.4609 9.48089 0
56.6618 3.98968 0
40.7912 -38.328 0
34.2384 5.01984 0
47.5731 12.42 0
39.3318 16.6646 0
33.0288 -26.6433 0
46.6423 5.775 0
23.4873 -7.82482 0
7.18093 -9.68329 0
44.2676 6.22182 0
40.5153 8.19524 0
45.9014 -4.04689 0
59.058 6.75588 0
41.9548 6.43196 0
43.7402 6.10987 0
62.0639 -2.85861 0
38.7343 4.72086 0
29.9304 4.91327 0
57.4562 -5.31077 0
-0 -0 0
62.0537 2.68907 0
45.0486 -9.13493 0
62.2936 -26.0387 0
67.073 -2.25149 0
29.9631 -9.01959 0
38.0414 -4.87921 0
50.0713 -7.15991 0
25.0759 19.6774 0
42.1195 -5.31331 0
51.8835 -7.67651 0
61.0677 4.03042 0
51.4796 7.24723 0
43.8622 3.88042 0
50.3637 7.66513 0
50 -2.3946 0
52.2513 -7.79651 0
34.7738 16.5702 0
51.1284 9.94379 0
51.5573 14.8038 0
31.4712 -2.98764 0
73.6833 -13.7809 0
44.8651 -14.732 0
50.4347 24.5233 0
45.5369 6.42971 0
27.7736 -0.0664902 0
53.3675 9.47226 0
51.9267 -7.37546 0
33.7618 14.2581 0
55.765 8.06092 0
19.0369 5.59184 0
32.7746 6.75572 0
51.4121 7.26941 0
48.326 17.3488 0
39.7568 -35.3221 0
47.9107 12.1504 0
42.8129 11.7312 0
55.0169 -39.9012 0
33.6421 13.3077 0
13.2617 -5.88181 0
45.748 12.9707 0
45.931 4.63664 0
50.1698 8.81811 0
24.2606 8.7385 0
56.7961 12.6458 0
47.7577 13.9121 0
30.239 -6.03811 0
60.3227 10.4334 0
21.0079 -11.7246 0
17.0612 5.07931 0
48.7351 -6.49482 0
48.8475 -7.08004 0
41.9497 4.1265 0
35.2171 11.0037 0
48.0261 11.5569 0
34.0829 -6.84875 0
62.419 12.4514 0
50.1741 -17.1534 0
32.5982 -5.01944 0
29.1853 0.968526 0
71.8769 -7.38713 0
47.2175 -4.3374 0
44.9957 4.41323 0
47.0399 27.1783 0
28.2944 -14.1927 0
35.7702 2.76121 0
31.9882 -1.83893 0
61.1129 -9.77202 0
46.1306 -22.464 0
53.4354 -8.51037 0
75.3905 3.90587 0
24.6698 -0.519054 0
58.0155 -5.53417 0
47.0077 -5.84789 0
31.943 3.9544 0
22.2837 -5.18373 0
40.5628 12.8235 0
50.0001 -3.56421 0
42.2214 23.1326 0
26.1468 -21.7548 0
50.193 -10.23 0
49.8053 -17.8106 0
30.994 0.0126914 0
46.6885 -15.9674 0
51.4022 6.31424 0
29.7025 2.62494 0
48.0091 -6.96306 0
46.7234 7.50863 0
43.628 -8.38454 0
47.8061 10.3654 0
48.2173 -6.87204 0
66.0352 -9.11647 0
71.1186 32.1435 0
46.5386 6.53872 0
48.6834 -5.93992 0
41.3866 -8.91593 0
24.6349 7.15442 0
47.9168 2.62175 0
44.4235 -4.12222 0
1.99729 -1.73646 0
48.3395 7.95996 0
54.0522 10.8156 0
33.1501 25.0578 0
61.898 5.19186 0
40.3336 4.00823 0
28.4061 -1.34807 0
47.2426 4.24389 0
11.9501 0.284804 0
44.2666 3.48016 0
47.0368 -7.50866 0
49.0413 -6.451 0
46.9776 -10.7707 0
18.183 15.7673 0
50.3336 7.63531 0
36.1341 -11.9802 0
65.1529 -27.4161 0
46.6 18.5959 0
49.7527 -7.90105 0
87.3467 -6.74573 0
45.8943 7.59502 0
51.483 19.8601 0
50 -5.94692 0
25.6435 1.56433 0
28.3208 14.3373 0
35.6595 -5.2611 0
55.7929 30.1408 0
62.0929 2.32843 0
62.6471 -5.80927 0
40.3079 6.83384 0
47.4141 -7.34354 0
29.3785 9.68517 0
25.6167 24.0679 0
44.7855 -6.40761 0
35.9138 -12.3695 0
52.5291 10.5238 0
53.9524 7.13555 0
50.4041 -21.3302 0
44.9118 -8.29477 0
47.9642 -9.46482 0
25.2577 33.0225 0
43.3573 -4.0255 0
54.0004 -19.5306 0
35.3534 -18.8352 0
50.5238 -10.715 0
48.7147 -20.6849 0
30.6446 2.99127 0
31.0383 -6.3997 0
45.9487 -5.79351 0
50.0001 -5.95019 0
30.4089 15.3319 0
38.7269 8.8892 0
45.4733 -10.7523 0
31.0289 -2.12362 0
46.9114 -3.80232 0
43.1591 4.65995 0
34.5416 3.76941 0
53.2604 -3.36293 0
30.2379 16.3418 0
13.752 21.9577 0
44.1683 11.7066 0
66.7307 -16.2106 0
47.6044 -6.42514 0
45.5205 -4.0636 0
53.79 8.14579 0
39.7934 5.92229 0
40.5439 15.7779 0
32.9688 2.91781 0
33.3051 4.52376 0
30.5229 16.0474 0
37.3093 -6.19656 0
47.5629 7.04557 0
52.6906 8.11538 0
55.4233 23.4177 0
50.9833 -9.95521 0
49.1176 7.22875 0
40.0427 10.1698 0
56.0862 0.340361 0
46.9531 -10.2986 0
24.5763 -3.88003 0
49.7517 -12.1003 0
31.0117 11.4391 0
36.9572 -3.28886 0
38.0997 -3.59451 0
73.4011 16.1676 0
53.385 2.28012 0
-0 -0 0
70.8731 1.12898 0
59.0936 20.0603 0
38.0329 -13.1007 0
49.831 -9.3105 0
18.3871 -3.00524 0
52.0011 -10.3169 0
77.677 0.334436 0
36.2498 -8.91337 0
14.7746 -21.7554 0
49.9032 16.1877 0
45.752 5.25886 0
15.4142 -11.5065 0
27.4995 -3.45176 0
48.3682 -5.58681 0
37.596 3.99312 0
46.04 12.1049 0
42.0742 6.42547 0
42.989 5.73957 0
49.6017 -6.65581 0
38.7918 -6.89832 0
24.8683 32.0142 0
33.9363 13.1251 0
40.8319 3.12677 0
21.5193 -2.20374 0
48.5977 -6.60471 0
50 -3.21006 0
41.9061 6.5039 0
25.2827 -4.49101 0
47.7833 -11.3698 0
37.3901 6.01853 0
23.8086 4.46818 0
33.0214 -11.528 0
31.6719 1.16707 0
42.9547 11.4022 0
46.469 -5.93765 0
35.8268 24.1668 0
50.0036 -14.297 0
29.7183 -1.8272 0
47.8774 -19.4925 0
47.767 -8.77205 0
35.1428 11.0048 0
23.3454 -14.7607 0
61.5907 -15.6373 0
35.2248 16.5399 0
45.17 12.8737 0
57.3234 -15.3928 0
39.0466 -11.0441 0
40.008 -7.46389 0
37.2312 5.05312 0
53.1888 -7.84437 0
27.8957 1.05583 0
48.682 -7.3737 0
38.2709 -9.20439 0
19.6784 -17.0051 0
64.6553 -11.6203 0
58.0355 -25.1453 0
41.6313 23.8699 0
61.4562 -0.900069 0
22.2945 -0.932998 0
14.1605 22.0244 0
33.4425 3.03943 0
54.0371 13.746 0
40.1152 4.39801 0
48.7087 -10.7848 0
54.9924 7.2767 0
50.7134 -9.09043 0
28.1012 6.58184 0
31.2874 1.551 0
39.6341 2.87797 0
46.6024 -9.79724 0
47.1112 -6.6001 0
55.5735 -11.6481 0
50.0001 -5.78574 0
49.8798 -25.9324 0
36.5287 11.9467 0
54.2166 -6.05988 0
44.7123 -14.161 0
53.5987 15.1134 0
58.2521 29.3525 0
56.6812 -20.2984 0
51.1977 8.72339 0
50.9375 -7.22281 0
30.7223 -0.5067 0
49.1524 -8.96537 0
49.7584 7.14772 0
53.4722 -4.50042 0
58.8828 -3.49379 0
73.7666 -17.4501 0
48.0848 -7.27901 0
36.3583 -24.1133 0
53.4222 32.5348 0
24.5942 3.51558 0
49.9933 -8.10901 0
49.6702 11.3219 0
44.177 -10.7825 0
48.4167 8.75916 0
62.0961 16.2861 0
32.8427 7.77549 0
34.5921 3.46978 0
28.7777 -10.41 0
37.4771 4.14128 0
47.7213 -7.14078 0
59.1413 9.81216 0
33.9055 2.25183 0
39.9273 -7.83984 0
41.7553 -17.8926 0
54.1527 19.8706 0
-0 -0 0
68.1502 -3.76739 0
52.6437 10.4188 0
36.3479 3.8191 0
12.6023 -0.308196 0
45.0132 -7.70158 0
50.4292 6.6338 0
35.7385 -4.4658 0
56.7364 -6.4331 0
60.2114 26.3157 0
25.0462 14.7513 0
42.9002 -22.2147 0
48.4565 -9.92249 0
31.5961 -1.01298 0
51.3952 12.0311 0
40.9928 10.3865 0
39.7746 10.6275 0
33.9127 -3.89576 0
37.2284 13.4265 0
44.0258 9.68797 0
36.0716 -6.6337 0
52.0938 14.1572 0
29.0115 -3.76044 0
50.003 -11.8927 0
36.9894 -6.87907 0
29.1368 -36.4193 0
39.008 -6.37379 0
34.6662 -21.7109 0
44.7837 11.4063 0
48.2869 -7.35813 0
50 -5.44084 0
53.9583 -3.90104 0
37.5027 10.9761 0
35.8096 -8.61537 0
57.1642 2.14858 0
53.5336 3.32212 0
59.4777 -3.51771 0
61.4311 -0.898162 0
52.6876 -15.7192 0
26.6154 -4.20567 0
57.5143 -4.73191 0
5.01493 -3.72264 0
43.9801 8.33156 0
65.5188 18.2917 0
54.7158 11.8973 0
41.9374 -8.87645 0
47.6504 -15.1305 0
78.1482 -3.81181 0
33.6151 5.95589 0
50.0001 -1.43914 0
66.0655 12.512 0
56.8626 5.58501 0
58.9553 1.86359 0
46.8026 4.82387 0
14.2916 -0.368109 0
35.4625 2.53447 0
40.2258 6.91705 0
64.8484 11.7978 0
53.62 -26.227 0
49.4907 -9.41643 0
41.7956 3.70413 0
50.3132 -17.3984 0
44.809 -6.40468 0
56.077 -1.55039 0
36.2853 -29.944 0
27.0437 -2.08311 0
35.4802 2.80709 0
57.8392 -8.20373 0
35.7155 -27.8963 0
28.4004 5.13594 0
46.3342 8.84731 0
49.5214 9.44023 0
47.8647 5.42775 0
40.9871 16.8646 0
49.6654 6.98818 0
65.7333 -0.609405 0
56.086 -1.40776 0
46.7511 -29.1768 0
51.8418 7.45386 0
48.3824 7.69864 0
53.7763 5.51449 0
52.846 -7.54352 0
46.9828 7.92905 0
35.4159 7.00308 0
55.5438 -4.66014 0
43.8234 -11.8064 0
54.1199 -13.5314 0
20.9588 -18.9672 0
48.205 8.92138 0
66.645 -3.31284 0
56.9019 -3.06277 0
41.5412 -5.18328 0
78.9886 -0.204176 0
48.8166 5.64739 0
9.16184 17.7865 0
49.576 22.281 0
55.9713 -3.50854 0
52.4989 6.63314 0
44.1329 4.89197 0
28.4576 -7.87223 0
13.5152 10.9091 0
41.7154 13.5548 0
-0 -0 0
40.8472 8.78299 0
35.0393 -8.54168 0
52.838 0.297987 0
50.8584 10.1449 0
31.6973 0.580054 0
40.9207 11.4923 0
29.1854 10.6553 0
17.6994 11.4885 0
48.0565 -6.32497 0
43.2714 6.94374 0
42.7563 -11.0482 0
47.7642 -4.89457 0
31.0189 -1.72877 0
65.6537 -0.0339805 0
70.2523 33.7701 0
55.9251 -12.198 0
46.3387 -24.9554 0
45.2163 -4.20295 0
28.23 -8.33776 0
76.67 13.5376 0
38.0376 2.77942 0
31.3738 -6.91348 0
35.6187 -3.50347 0
50 -4.07618 0
31.5747 3.79546 0
44.4483 10.5808 0
34.6413 -14.4442 0
62.5671 7.90867 0
45.879 7.5254 0
26.2314 -23.6942 0
39.6535 5.39331 0
52.3279 -12.59 0
32.0243 -0.171916 0
53.9692 0.743568 0
43.6969 13.6007 0
37.8556 30.1023 0
34.3314 -21.5823 0
39.4055 -4.77599 0
49.1813 -7.25544 0
50 4.14901 0
46.0969 11.1584 0
44.7807 2.17438 0
55.1737 18.5549 0
37.3998 -8.12679 0
34.1061 -10.6229 0
45.1709 -10.686 0
55.9346 3.57169 0
41.9011 -7.68067 0
64.232 -4.4645 0
49.9487 6.53749 0
53.7082 8.81924 0
44.4808 5.66709 0
57.8894 -6.86172 0
46.5055 4.21075 0
42.0185 -13.5801 0
46.5674 -5.23397 0
50.421 8.77715 0
46.8137 4.95638 0
47.181 9.55128 0
39.3859 7.0658 0
32.9357 10.3003 0
45.6665 7.72327 0
40.7914 5.18999 0
45.1677 8.88028 0
43.5379 -7.47336 0
50.6238 6.91573 0
45.9998 -11.6702 0
55.2149 9.02398 0
33.7505 -7.18735 0
46.8039 5.19191 0
36.3899 -4.38205 0
24.0857 -33.7829 0
41.7123 7.77132 0
55.5157 -14.3529 0
21.3015 -1.99055 0
39.7423 -7.84625 0
32.3254 1.09933 0
42.1103 -7.44121 0
47.2334 2.18297 0
56.6529 -7.18843 0
70.5592 -18.3194 0
31.3703 2.28465 0
37.5601 10.6804 0
47.9879 -5.67737 0
15.0317 -1.21689 0
51.5249 -10.8771 0
62.8467 -8.0743 0
80.7483 -24.2123 0
17.8399 -11.3995 0
34.1077 9.22008 0
50.8807 10.1601 0
36.6276 5.53824 0
32.9446 -3.35271 0
42.3439 -11.0945 0
36.122 25.445 0
62.855 8.88127 0
35.5273 7.01564 0
34.1985 6.66987 0
25.2303 -3.78987 0
37.0496 15.6413 0
62.7965 7.98615 0
46.2139 27.4947 0
44.0309 -7.65186 0
36.7551 8.76248 0
66.0905 5.64629 0
40.4628 -10.5886 0
48.2188 -6.03287 0
30.6953 -14.2054 0
33.2795 -27.6989 0
83.5127 1.22175 0
47.5288 8.09501 0
45.2043 17.9086 0
31.8469 5.66081 0
40.5336 4.48621 0
43.5025 -7.48227 0
46.6219 3.54494 0
49.6556 -7.24194 0
43.6923 -6.64562 0
47.5685 11.9684 0
48.6966 -8.24817 0
19.0337 12.0618 0
43.3582 6.12544 0
51.8434 -5.28017 0
40.9012 -7.20959 0
65.9964 -18.5372 0
47.9229 14.0372 0
47.7726 10.2845 0
34.1913 -4.65924 0
34.4011 3.43681 0
57.0986 1.50656 0
49.7939 -14.4855 0
58.4339 -24.6986 0
32.0107 3.71266 0
60.5656 -23.9129 0
50.9961 -24.0981 0
32.3001 1.41677 0
49.0625 -22.5857 0
45.0433 -6.8541 0
57.3781 8.20945 0
47.5358 -5.21811 0
45.198 8.05485 0
54.8236 -7.4093 0
52.3826 -19.5138 0
27.7638 2.36543 0
59.8839 2.75806 0
37.5711 -5.35367 0
29.4848 0.451027 0
36.2383 -10.9908 0
43.0698 16.0786 0
29.9593 1.22495 0
36.0446 3.74312 0
42.9928 3.53541 0
44.6012 9.20049 0
44.9055 8.58023 0
47.1753 5.98427 0
44.119 -8.33755 0
40.7504 -3.55237 0
50.7797 8.44515 0
30.7399 1.41145 0
58.1851 -20.8683 0
42.4218 10.2998 0
37.9109 -6.08072 0
39.0753 -4.91511 0
29.5603 -2.02989 0
35.4113 -21.6943 0
55.1188 -30.9453 0
30.3319 -6.33091 0
18.2869 5.03504 0
27.9575 2.51663 0
49.2564 6.69361 0
45.9806 -4.35561 0
44.0037 5.02516 0
52.4027 14.0769 0
46.0086 -6.76085 0
61.0252 4.65306 0
65.0568 7.18702 0
46.2101 5.74864 0
31.6213 -0.628446 0
47.8041 4.86341 0
36.473 13.4309 0
63.2909 2.46689 0
17.1839 29.809 0
21.5135 -10.3886 0
26.4117 -8.28272 0
76.1105 -4.39809 0
36.6415 10.8177 0
36.6213 -5.97443 0
43.7927 -12.4186 0
43.6927 2.65341 0
39.53 -3.67858 0
43.1715 4.90367 0
35.6752 -9.37412 0
38.3974 -10.7025 0
54.4303 3.51415 0
62.3491 -21.3514 0
37.7448 -5.16987 0
54.3399 -17.1817 0
38.0493 -10.4523 0
50.8982 -9.23532 0
60.0833 -3.16859 0
30.9743 28.5148 0
47.5317 -6.31902 0
55.3818 1.86572 0
30.807 0.25384 0
41.7582 5.32272 0
57.0121 9.34699 0
27.6539 4.50349 0
29.5241 -0.161838 0
31.2119 -3.3233 0
54.1941 -4.9447 0
53.5613 -5.50487 0
29.1578 -3.55786 0
54.1116 1.61635 0
37.4918 32.8481 0
55.22 -9.16765 0
59.7364 1.80854 0
48.8801 -32.5571 0
49.3747 9.57532 0
58.871 -35.0976 0
20.9287 -6.09339 0
59.185 20.3556 0
32.7432 -37.4495 0
49.079 -6.90812 0
45.4452 6.41583 0
32.5581 2.76211 0
54.2321 39.5103 0
42.5637 -10.0053 0
50.2872 -8.69966 0
32.4084 -2.97594 0
36.4728 4.66128 0
47.173 -5.09796 0
44.2513 6.09301 0
41.6071 -19.7309 0
53.1663 6.89741 0
8.80552 19.3512 0
19.9686 11.2719 0
56.5002 5.45676 0
43.5357 15.9228 0
53.083 4.5284 0
42.3375 9.06953 0
28.4727 7.92587 0
31.2101 26.9094 0
86.6139 10.8586 0
29.7317 1.73763 0
40.8445 -4.0513 0
45.9983 12.8311 0
42.4094 19.3401 0
69.915 8.83072 0
55.5183 -0.957048 0
30.2959 3.93923 0
48.4796 -7.95903 0
38.6345 -3.81801 0
34.5648 10.9078 0
74.2539 14.2641 0
33.1029 -18.4037 0
41.9016 -10.6837 0
66.4211 3.20233 0
31.7681 -27.3956 0
15.8797 -9.61965 0
6.07753 9.77235 0
1.86265e-09 -0 0
18.776 -7.59367 0
45.1303 5.39344 0
27.9343 3.84142 0
48.8034 7.02446 0
3.72529e-09 -5.68434e-14 0
50.6075 8.61919 0
60.4441 5.30283 0
54.6597 -10.9119 0
25.9795 -28.5269 0
50 3.04121 0
66.5546 -4.33237 0
65.9556 6.05811 0
38.4251 -9.79784 0
56.0041 -2.94166 0
50 -4.06231 0
44.8302 10.0767 0
64.2121 12.7929 0
59.2921 -12.6677 0
19.9826 -15.4367 0
56.1475 5.54629 0
53.6736 -4.55653 0
44.4748 17.9548 0
32.5635 -11.4846 0
65.9248 20.3308 0
47.9779 10.2493 0
25.174 -1.07193 0
70.5328 -33.1435 0
33.3294 3.6534 0
39.8007 19.94 0
44.3149 -6.32918 0
45.7594 -12.5283 0
40.2663 25.604 0
55.1151 1.98959 0
49.6628 -10.6596 0
46.4996 8.78802 0
39.1606 11.8609 0
16.4363 -4.08325 0
49.3553 8.28555 0
24.5498 33.1252 0
56.8265 -9.53463 0
57.929 4.09607 0
48.4843 4.50736 0
34.6449 -7.01573 0
25.0422 5.14161 0
42.9125 4.57041 0
25.7197 9.78302 0
40.3172 -15.9317 0
7.13549 -8.15699 0
55.3551 -3.32763 0
36.4842 8.98518 0
59.2124 10.0904 0
38.775 -16.4625 0
27.988 -2.96052 0
34.6085 -2.60591 0
54.5012 -1.03461 0
23.265 14.4512 0
32.0978 0.313753 0
47.5386 -5.70544 0
53.8233 -10.8794 0
45.8571 3.37085 0
43.1443 -32.4799 0
49.2498 8.37067 0
54.4056 -0.643008 0
44.8228 -5.3868 0
45.5243 -9.88937 0
33.0066 -2.58717 0
37.9793 -13.1526 0
51.3751 -14.1953 0
66.9524 -26.6679 0
49.496 -7.99811 0
46.7696 14.9947 0
30.457 -4.89811 0
40.6143 -37.7887 0
53.6772 3.32439 0
46.6688 3.23422 0
48.1362 16.8957 0
46.5688 -9.40971 0
39.1996 -28.6687 0
31.5985 -8.76629 0
28.4266 -5.75896 0
23.9337 22.2869 0
13.9759 21.3496 0
43.4735 -27.2794 0
16.7978 -4.41215 0
35.3295 -5.1838 0
38.1902 -4.63042 0
53.8587 4.21507 0
58.2534 4.14952 0
58.2365 -10.338 0
49.0777 -7.09047 0
50.5764 -8.07679 0
48.6315 7.07787 0
30.2118 -4.07011 0
10.3122 -19.3649 0
36.54 -9.94687 0
54.6388 -8.62378 0
51.7809 -13.0506 0
52.9161 -20.5128 0
39.4807 -19.7293 0
46.0928 -12.7976 0
21.5381 -10.4216 0
47.1946 21.03 0
81.8937 20.9051 0
48.2801 6.16039 0
31.4689 8.50006 0
56.0689 0.125152 0
44.6957 22.903 0
39.9131 -30.2292 0
31.6146 -0.99101 0
45.7845 -6.39832 0
72.7448 -4.76954 0
44.4406 -5.53581 0
22.2599 14.2082 0
54.1281 -5.74499 0
52.2584 5.37259 0
62.1285 17.1969 0
32.8994 1.52002 0
10.663 4.02208 0
47.8565 5.00052 0
40.5022 -5.34505 0
29.4409 2.67261 0
49.2665 7.12794 0
52.4922 -8.57571 0
47.0388 4.85758 0
36.9929 -5.18284 0
40.6386 10.6227 0
34.4378 6.56446 0
-4.65661e-10 -0 0
31.2181 2.75334 0
70.3893 10.6546 0
54.069 16.1585 0
47.5224 -15.7354 0
66.1813 18.72 0
62.7955 -5.20512 0
42.2537 -14.3174 0
47.2675 -13.6469 0
30.1973 -1.51088 0
49.5286 8.05218 0
42.8322 19.0343 0
34.7727 38.6475 0
33.1895 13.3178 0
60.4027 7.00228 0
49.5418 15.2553 0
58.4954 -35.9229 0
46.9176 -3.48429 0
41.0302 2.82902 0
49.6998 13.1331 0
44.6288 7.41214 0
39.4055 -4.77599 0
59.1987 6.77663 0
51.5901 11.8661 0
58.8969 6.82001 0
76.2017 -10.1823 0
52.921 7.93512 0
35.4272 16.53 0
47.6545 -8.02438 0
43.2901 7.05758 0
39.8797 5.92504 0
57.7146 -9.97113 0
46.8045 3.21799 0
17.6194 17.827 0
22.1611 1.51447 0
28.3352 -13.6962 0
54.655 16.6526 0
60.0133 0.0999822 0
40.8782 -14.8444 0
52.6109 -6.58809 0
46.6151 6.72087 0
38.2114 -8.28242 0
47.7039 6.60321 0
30.1318 0.949355 0
41.4918 3.65241 0
35.7436 -7.23376 0
44.061 -10.1097 0
36.409 8.98232 0
52.0245 15.5397 0
59.8873 14.5379 0
32.1949 -17.9145 0
60.3402 -16.9918 0
56.6685 11.5677 0
57.5711 16.5829 0
52.9284 -30.5989 0
77.9052 -14.5393 0
46.4557 -7.56288 0
54.8678 -4.90144 0
44.9268 -5.44036 0
29.6031 -0.236619 0
40.554 8.84675 0
28.996 8.22145 0
31.4307 -11.1283 0
24.3894 16.1401 0
44.3452 15.3813 0
39.2905 32.2916 0
49.3634 8.27944 0
55.8408 7.86301 0
47.9435 -9.42888 0
52.79 -1.39552 0
46.6551 3.71874 0
64.3081 -19.1121 0
40.4587 -10.5594 0
34.3404 4.82596 0
50.9512 10.0599 0
39.0005 -9.73057 0
43.8432 -21.982 0
37.3666 7.17301 0
49.1686 14.2836 0
43.1291 14.1037 0
38.5084 -13.0892 0
48.7009 -6.50729 0
64.245 -13.3286 0
42.9882 19.1327 0
38.6197 19.7406 0
34.3314 -3.15421 0
32.1168 5.72408 0
42.5426 -6.72211 0
47.8561 -12.4204 0
42.5198 37.8237 0
48.4982 -5.45597 0
43.7206 -5.13983 0
45.5953 34.5268 0
47.6301 28.7379 0
38.6406 8.89298 0
44.0643 3.94476 0
68.3232 26.3392 0
47.5409 -6.34677 0
47.8498 -6.07485 0
46.2639 10.3379 0
29.4274 -22.2449 0
38.4135 15.6861 0
55.2902 3.06059 0
23.5702 -12.2069 0
61.4988 21.377 0
30.4828 -0.160448 0
37.747 19.9801 0
50.5244 -6.39218 0
47.0549 -10.904 0
33.5335 -1.88451 0
52.0705 13.6862 0
34.8463 3.87254 0
40.7066 14.0346 0
63.0965 -13.9501 0
42.841 -9.01274 0
50.161 -10.0587 0
52.4975 11.2118 0
54.2117 -2.19254 0
27.9617 19.8099 0
30.3914 -4.12349 0
47.0229 -5.11966 0
49.6172 29.4443 0
48.3742 9.53891 0
47.371 -8.15612 0
30.2549 21.3636 0
32.2009 -8.31568 0
58.567 -13.5335 0
43.6183 7.73143 0
23.9749 -22.2284 0
49.4303 9.50622 0
-0 -0 0
50.0001 1.33316 0
28.0024 -0.909207 0
55.9652 -5.94399 0
48.7927 -10.9176 0
32.9003 4.76599 0
56.6094 28.1428 0
41.9989 4.29249 0
30.9525 -3.60744 0
35.1557 4.9035 0
62.593 -9.64004 0
42.8687 -6.24983 0
58.1869 19.3286 0
51.9195 8.75922 0
48.3138 -6.66332 0
20.4074 20.7491 0
67.3015 -24.6651 0
41.986 -27.7244 0
48.3679 -6.12883 0
55.7419 -11.7852 0
31.135 5.96325 0
30.2002 5.03076 0
53.1318 5.32595 0
56.3314 -2.94853 0
46.4819 -6.51951 0
41.9894 8.1481 0
30.9469 0.962152 0
67.6566 25.5282 0
27.4878 3.56852 0
33.0123 -6.90582 0
44.8304 8.42661 0
25.5346 24.8532 0
26.8865 13.6859 0
60.3388 -10.8953 0
13.5628 10.8353 0
48.9466 -7.32603 0
23.5024 4.85844 0
62.4681 36.0667 0
37.7123 -7.1683 0
48.3996 6.68723 0
45.552 3.37274 0
41.8411 -18.2263 0
64.4338 -6.61497 0
64.4196 -19.2024 0
55.7951 -6.80625 0
58.1747 -0.797124 0
49.8967 -12.297 0
40.1744 3.98482 0
37.191 7.02074 0
45.9516 -7.83597 0
50 -1.0862 0
32.9382 -4.68141 0
70.5099 -1.05827 0
26.2626 -10.5301 0
49.4157 7.83329 0
47.8831 -8.95966 0
31.9399 -11.2727 0
32.0911 -1.02946 0
51.6226 -6.37531 0
31.5011 -18.1449 0
42.4231 9.46612 0
54.2552 -13.6949 0
45.9864 4.22341 0
56.4176 1.36515 0
66.1864 1.82617 0
48.4629 -5.46329 0
41.0851 -6.3976 0
41.939 -4.34307 0
38.734 4.69254 0
30.3579 3.79474 0
42.6102 5.07312 0
57.9516 -2.09296 0
46.3606 11.025 0
46.6272 6.76294 0
65.8331 12.4369 0
52.8021 4.42297 0
46.206 5.70459 0
58.8058 4.34925 0
56.1648 6.1824 0
52.7495 11.4904 0
43.425 -6.29535 0
24.0522 -6.61406 0
56.9135 15.2935 0
60.6998 -5.92097 0
38.6979 4.04525 0
68.6727 -22.0702 0
49.6506 10.9894 0
51.2319 -8.14179 0
59.2717 -6.71639 0
38.4646 -14.1962 0
53.205 -12.4263 0
33.3644 3.48905 0
35.4432 7.3186 0
36.6434 3.86122 0
70.9606 -1.40824 0
54.8051 4.39879 0
34.2064 6.58612 0
32.1312 -8.58368 0
56.4522 -15.9438 0
42.8178 -8.41811 0
52.3486 1.91963 0
38.4937 -22.3194 0
59.8043 0.0949814 0
66.9575 26.3921 0
46.9275 7.81674 0
28.1343 1.24555 0
38.5887 -3.82299 0
42.805 -16.6362 0
54.1631 10.6916 0
52.9463 10.2386 0
30.7156 -0.333836 0
40.2438 -24.7159 0
25.4951 11.6028 0
54.134 -13.8149 0
69.3715 -11.453 0
35.5013 4.02893 0
28.4591 -11.9853 0
52.0441 5.27129 0
41.9772 -6.05921 0
55.1408 39.0399 0
58.5364 14.0987 0
56.7389 -12.7054 0
48.0523 -7.07181 0
52.4178 -11.4023 0
51.5011 -11.0195 0
63.5317 -12.4089 0
47.8836 -6.2872 0
34.4936 8.6406 0
46.0024 4.9672 0
42.5187 -11.8027 0
42.9001 4.50253 0
55.9907 3.57635 0
41.896 28.5631 0
59.0038 -9.71297 0
64.0574 7.12993 0
52.2389 20.8462 0
45.0335 4.45942 0